 ----------------------------------------------------------------------
 #p hf/sto-3g CIS(NStates=30,Root=1,AllTransitionDensities,Singlets) no
 symm IOp(3/33=3,3/36=1,4/33=3,5/33=3,5/72=-3,6/8=1,6/33=3,8/10=90,9/33
 =3,9/40=3)
 ----------------------------------------------------------------------

 ---------------
 CIS calculation
 ---------------
 Symbolic Z-matrix:
 Charge =  0 Multiplicity = 1

                          Input orientation:
 ---------------------------------------------------------------------
 Center     Atomic      Atomic             Coordinates (Angstroms)
 Number     Number       Type             X           Y           Z
 ---------------------------------------------------------------------
      1          1           0        0.000000    0.000000   -0.765000
      2          3           0        0.000000    0.000000    0.765000
 ---------------------------------------------------------------------

 SCF Done:  E(RHF) =  -7.86330713133     A.U. after    8 cycles

 Excitation energies and oscillator strengths:

 Excited state symmetry could not be determined.
 Excited State   1:      Singlet-?Sym    4.5813 eV  270.63 nm  f=0.0312  <S**2>=0.000
       1 ->  3        -0.00448
       1 ->  6        -0.00202
       2 ->  3         0.70667
       2 ->  6         0.02444
 This state for optimization and/or second-order correction.
 Total Energy, E(CIS/TDA) =  -7.69494684257
 Copying the excited state density for this state as the 1-particle RhoCI density.
    CIS Density (Total):
                1             2             3             4             5
      1  0.306237D+00
      2 -0.590237D-01  0.203465D+01
      3  0.173148D+00 -0.170216D+00  0.804416D+00
      4  0.000000D+00  0.000000D+00  0.000000D+00  0.000000D+00
      5  0.000000D+00  0.000000D+00  0.000000D+00  0.000000D+00  0.000000D+00
      6 -0.250217D+00 -0.619155D-01  0.345346D+00  0.000000D+00  0.000000D+00
                6
      6  0.540073D+00

 Excited state symmetry could not be determined.
 Excited State   2:      Singlet-?Sym    6.2246 eV  199.18 nm  f=0.2878  <S**2>=0.000
       1 ->  4        -0.00725
       2 ->  4         0.70412
       2 ->  5        -0.06453

 Excited state symmetry could not be determined.
 Excited State   3:      Singlet-?Sym    6.2246 eV  199.18 nm  f=0.2878  <S**2>=0.000
       1 ->  5        -0.00725
       2 ->  4         0.06453
       2 ->  5         0.70412

 Excited state symmetry could not be determined.
 Excited State   4:      Singlet-?Sym   17.6430 eV   70.27 nm  f=0.3781  <S**2>=0.000
       1 ->  3        -0.00148
       1 ->  6         0.00131
       2 ->  3        -0.02445
       2 ->  6         0.70668

 Excited state symmetry could not be determined.
 Excited State   5:      Singlet-?Sym   56.3975 eV   21.98 nm  f=0.0638  <S**2>=0.000
       1 ->  3         0.70647
       1 ->  6         0.02950
       2 ->  3         0.00451
       2 ->  6         0.00158

 Excited state symmetry could not be determined.
 Excited State   6:      Singlet-?Sym   58.0877 eV   21.34 nm  f=0.1331  <S**2>=0.000
       1 ->  4         0.70588
       1 ->  5        -0.04098
       2 ->  4         0.00727

 Excited state symmetry could not be determined.
 Excited State   7:      Singlet-?Sym   58.0877 eV   21.34 nm  f=0.1331  <S**2>=0.000
       1 ->  4         0.04098
       1 ->  5         0.70588
       2 ->  5         0.00727

 Excited state symmetry could not be determined.
 Excited State   8:      Singlet-?Sym   69.8907 eV   17.74 nm  f=0.0393  <S**2>=0.000
       1 ->  3        -0.02951
       1 ->  6         0.70649
       2 ->  3         0.00188
       2 ->  6        -0.00131

 Alpha  occ. eigenvalues --   -2.34732  -0.29113
 Alpha virt. eigenvalues --    0.07879   0.16384   0.16384   0.56664

 Mulliken charges:
               1
     1  H    0.016754
     2  Li  -0.016754
 Sum of Mulliken charges =   0.00000

 Dipole moment (field-independent basis, Debye):
    X=             -0.0000    Y=              0.0000    Z=              4.8428  Tot=              4.8428
 Quadrupole moment (field-independent basis, Debye-Ang):
   XX=             -5.2448   YY=             -5.2448   ZZ=             -1.3806
   XY=              0.0000   XZ=             -0.0000   YZ=              0.0000

 Normal termination of Gaussian DV at Sun Jun  7 12:39:18 2020.
